LAMMPS 'input.'

5 atoms
4 bonds
1 angles

4 atom types
3 bond types
1 angle types

0.0 4.0 xlo xhi
0.0 4.0 ylo yhi
0.0 4.0 zlo zhi

Masses

1 15.4994
2 1.0e-16
3 1.00794
4 0.50000


Bond Coeffs

   1   000.000000     0.263     # Ow-Hw
   2   000.000000     0.9572    # Ow-M
   3   461.196000             0.000000  # ODw DC-DP

Angle Coeffs

   1    0.0   104.520000  # Hw-Ow-Hw


Atoms

	1	1	1  2.000000   1.0      1.0      1.00 
	2	1	2  -1.194000   1.160976 1.20797  1.00 
	3	1	3  0.597000   1.957200 1.00000  1.00
	4	1	3  0.597000   0.760013 1.926627 1.00
        5       1       4  -2.000000   1.01     1.01     1.01
Bonds

           1           1           1           2
           2           2           1           3
           3           2           1           4
	   4           3           1           5

 Angles

           1           1           3           1           4

